 Gaussian 16, Revision C.02,
 Gaussian 16:  ES64L-G16RevC.02  7-Dec-2021

 -------------------------------------
 # wB97XD/6-31G(d) Opt(NoMicro) NoSymm
 -------------------------------------

 ----
 PFOA
 ----
 Symbolic Z-matrix:
 Charge =  0 Multiplicity = 1

 SCF Done:  E(RwB97XD) =  -1952.91374138     A.U. after   15 cycles
 SCF Done:  E(RwB97XD) =  -1952.93354102     A.U. after   14 cycles
 SCF Done:  E(RwB97XD) =  -1952.94461863     A.U. after   14 cycles
 SCF Done:  E(RwB97XD) =  -1952.94336104     A.U. after   13 cycles
 SCF Done:  E(RwB97XD) =  -1952.94364200     A.U. after   14 cycles
 SCF Done:  E(RwB97XD) =  -1952.94646522     A.U. after   10 cycles
 SCF Done:  E(RwB97XD) =  -1952.94747668     A.U. after   12 cycles
 SCF Done:  E(RwB97XD) =  -1952.94841410     A.U. after   13 cycles
 SCF Done:  E(RwB97XD) =  -1952.94984580     A.U. after   13 cycles
 SCF Done:  E(RwB97XD) =  -1952.95139114     A.U. after   13 cycles
 SCF Done:  E(RwB97XD) =  -1952.95163451     A.U. after   13 cycles
 SCF Done:  E(RwB97XD) =  -1952.95193604     A.U. after   13 cycles
 SCF Done:  E(RwB97XD) =  -1952.95202482     A.U. after   12 cycles
 SCF Done:  E(RwB97XD) =  -1952.95202212     A.U. after   12 cycles
 SCF Done:  E(RwB97XD) =  -1952.95205183     A.U. after   11 cycles
 SCF Done:  E(RwB97XD) =  -1952.95205291     A.U. after    8 cycles
 SCF Done:  E(RwB97XD) =  -1952.95205303     A.U. after    8 cycles
 Optimization completed.
    -- Stationary point found.

                          Input orientation:
 ---------------------------------------------------------------------
 Center     Atomic      Atomic             Coordinates (Angstroms)
 Number     Number       Type             X           Y           Z
 ---------------------------------------------------------------------
      1          6           0       -1.190962    0.083345   -0.459000
      2          8           0       -2.209430   -0.222482   -1.003528
      3          6           0        0.103805   -0.750257   -0.673287
      4          6           0        0.625864   -0.585782   -2.121604
      5          6           0        2.094198   -1.000393   -2.432396
      6          6           0        2.571744   -2.442949   -2.117188
      7          6           0        1.895545   -3.658487   -2.818109
      8          6           0        1.901940   -3.681850   -4.370215
      9          6           0        1.616032   -5.082524   -4.976757
     10          9           0        0.542606   -5.626563   -4.405680
     11          9           0        1.388478   -4.944720   -6.280323
     12          9           0        2.658816   -5.888867   -4.806659
     13          9           0        0.950938   -2.844866   -4.815282
     14          9           0        3.100081   -3.277540   -4.826137
     15          9           0        2.569279   -4.741173   -2.379507
     16          9           0        0.623680   -3.741429   -2.396687
     17          9           0        3.882745   -2.478521   -2.409052
     18          9           0        2.424256   -2.641027   -0.791643
     19          9           0        2.285966   -0.775955   -3.746207
     20          9           0        2.903613   -0.179958   -1.737811
     21          9           0       -0.194660   -1.243229   -2.948939
     22          9           0        0.562341    0.737987   -2.400059
     23          9           0        1.068601   -0.322257    0.192246
     24          9           0       -0.160799   -2.036609   -0.420244
     25          8           0       -1.057999    1.125553    0.356928
     26          1           0       -0.151630    1.168062    0.697980
 ---------------------------------------------------------------------

 Alpha  occ. eigenvalues --  -24.90311 -24.89462 -24.89447 -24.89392 -24.89355
 Alpha  occ. eigenvalues --  -24.89303 -24.89239 -24.89238 -24.89177 -24.89167
 Alpha  occ. eigenvalues --  -24.89149 -24.89138 -24.89057 -24.89019 -24.88977
 Alpha  occ. eigenvalues --  -19.35992 -19.29857 -10.58556 -10.53440 -10.53401
 Alpha  occ. eigenvalues --  -10.53335 -10.53311 -10.52969 -10.52902 -10.47625
 Alpha  occ. eigenvalues --   -1.45762  -1.44389  -1.43150  -1.42197  -1.41674
 Alpha  occ. eigenvalues --   -1.41060  -1.40175  -1.36904  -1.36690  -1.36179
 Alpha  occ. eigenvalues --   -1.36042  -1.35816  -1.35477  -1.35408  -1.35177
 Alpha  occ. eigenvalues --   -1.24879  -1.16643  -0.95818  -0.93426  -0.90788
 Alpha  occ. eigenvalues --   -0.87319  -0.83171  -0.80168  -0.77644  -0.75724
 Alpha  occ. eigenvalues --   -0.74583  -0.74207  -0.73877  -0.72748  -0.72349
 Alpha  occ. eigenvalues --   -0.72040  -0.71355  -0.71182  -0.70350  -0.69986
 Alpha  occ. eigenvalues --   -0.69229  -0.68195  -0.67486  -0.67282  -0.66656
 Alpha  occ. eigenvalues --   -0.60686  -0.60302  -0.60028  -0.59583  -0.59219
 Alpha  occ. eigenvalues --   -0.58711  -0.58494  -0.58298  -0.57923  -0.57400
 Alpha  occ. eigenvalues --   -0.57066  -0.56610  -0.56241  -0.56075  -0.55962
 Alpha  occ. eigenvalues --   -0.55592  -0.55420  -0.55073  -0.54506  -0.54236
 Alpha  occ. eigenvalues --   -0.53971  -0.53829  -0.53367  -0.53150  -0.53030
 Alpha  occ. eigenvalues --   -0.52872  -0.52223  -0.52099  -0.51292  -0.50285
 Alpha  occ. eigenvalues --   -0.48247  -0.46040  -0.44116  -0.43735  -0.39209
 Alpha virt. eigenvalues --    0.03319   0.08657   0.09044   0.11953   0.13693
 Alpha virt. eigenvalues --    0.14938   0.16547   0.17584   0.21511   0.22570
 Alpha virt. eigenvalues --    0.24245   0.26145   0.27081   0.27512   0.28311

 Mulliken charges:
               1
     1  C    0.573402
     2  O   -0.415141
     3  C    0.509576
     4  C    0.536192
     5  C    0.541390
     6  C    0.544164
     7  C    0.527596
     8  C    0.477218
     9  C    0.817670
    10  F   -0.249918
    11  F   -0.253237
    12  F   -0.246394
    13  F   -0.267991
    14  F   -0.269388
    15  F   -0.273580
    16  F   -0.263099
    17  F   -0.268030
    18  F   -0.272300
    19  F   -0.267814
    20  F   -0.272654
    21  F   -0.251361
    22  F   -0.283890
    23  F   -0.298380
    24  F   -0.256157
    25  O   -0.571540
    26  H    0.453667
 Sum of Mulliken charges =  -0.00000

 Dipole moment (field-independent basis, Debye):
    X=              2.3080    Y=              0.5431    Z=              1.3261  Tot=              2.7167
 Quadrupole moment (field-independent basis, Debye-Ang):
   XX=           -138.1597   YY=           -129.6630   ZZ=           -129.8704
   XY=              1.2212   XZ=             -1.7765   YZ=              1.1808

 Normal termination of Gaussian 16 at Tue Jun 25 16:20:10 2024.
